<?xml version="1.0" encoding="UTF-8"?>

<!-- generated on 2021-09-22 14:39:40 by Eclipse SUMO sumo Version 1.10.0
<configuration xmlns:xsi="http://www.w3.org/2001/XMLSchema-instance" xsi:noNamespaceSchemaLocation="http://sumo.dlr.de/xsd/sumoConfiguration.xsd">

    <input>
        <net-file value="./SUMO/cenario1/net.xml"/>
        <route-files value="./SUMO/cenario1/flow.rou.xml"/>
        <additional-files value="./SUMO/cenario1/add.xml"/>
    </input>

    <output>
        <tripinfo-output value="./SUMO/cenario1/output/tripinfos.xml"/>
    </output>

    <processing>
        <time-to-teleport value="-1"/>
    </processing>

    <report>
        <no-warnings value="true"/>
        <no-step-log value="true"/>
    </report>

    <emissions>
        <device.emissions.probability value="100"/>
    </emissions>

</configuration>
-->

<tripinfos xmlns:xsi="http://www.w3.org/2001/XMLSchema-instance" xsi:noNamespaceSchemaLocation="http://sumo.dlr.de/xsd/tripinfo_file.xsd">
    <tripinfo id="E3_6.0" depart="0.00" departLane="E3_0" departPos="5.10" departSpeed="0.00" departDelay="0.00" arrival="11.00" arrivalLane="E6_0" arrivalPos="188.65" arrivalSpeed="55.09" duration="11.00" routeLength="394.90" waitingTime="0.00" waitingCount="0" stopTime="0.00" timeLoss="3.08" rerouteNo="0" devices="tripinfo_E3_6.0 emissions_E3_6.0" vType="CarA" speedFactor="0.94" vaporized="">
        <emissions CO_abs="12879.644547" CO2_abs="562665.638287" HC_abs="72.866036" PMx_abs="15.205568" NOx_abs="257.431438" fuel_abs="241.862154" electricity_abs="0"/>
    </tripinfo>
    <tripinfo id="E8_9.0" depart="0.00" departLane="E8_0" departPos="5.10" departSpeed="0.00" departDelay="0.00" arrival="11.00" arrivalLane="E9_0" arrivalPos="188.65" arrivalSpeed="58.36" duration="11.00" routeLength="394.90" waitingTime="0.00" waitingCount="0" stopTime="0.00" timeLoss="4.05" rerouteNo="0" devices="tripinfo_E8_9.0 emissions_E8_9.0" vType="CarA" speedFactor="1.08" vaporized="">
        <emissions CO_abs="14238.557829" CO2_abs="616868.818446" HC_abs="80.424498" PMx_abs="16.698571" NOx_abs="282.471826" fuel_abs="265.161475" electricity_abs="0"/>
    </tripinfo>
    <tripinfo id="E3_6.1" depart="5.00" departLane="E3_0" departPos="5.10" departSpeed="0.00" departDelay="0.76" arrival="17.00" arrivalLane="E6_0" arrivalPos="188.65" arrivalSpeed="46.57" duration="12.00" routeLength="394.90" waitingTime="0.00" waitingCount="0" stopTime="0.00" timeLoss="3.36" rerouteNo="0" devices="tripinfo_E3_6.1 emissions_E3_6.1" vType="CarA" speedFactor="0.83" vaporized="">
        <emissions CO_abs="10591.486802" CO2_abs="469581.775691" HC_abs="60.093763" PMx_abs="12.588714" NOx_abs="213.273970" fuel_abs="201.850117" electricity_abs="0"/>
    </tripinfo>
    <tripinfo id="E1_2.1" depart="4.00" departLane="E1_0" departPos="5.10" departSpeed="0.00" departDelay="0.40" arrival="20.00" arrivalLane="E2_1" arrivalPos="188.65" arrivalSpeed="58.37" duration="16.00" routeLength="394.90" waitingTime="0.00" waitingCount="0" stopTime="0.00" timeLoss="9.29" rerouteNo="0" devices="tripinfo_E1_2.1 emissions_E1_2.1" vType="CarA" speedFactor="1.03" vaporized="">
        <emissions CO_abs="15002.575322" CO2_abs="700898.228506" HC_abs="85.871756" PMx_abs="18.438173" NOx_abs="323.316149" fuel_abs="301.280777" electricity_abs="0"/>
    </tripinfo>
    <tripinfo id="E5_7.1" depart="8.00" departLane="E5_0" departPos="5.10" departSpeed="0.00" departDelay="0.80" arrival="20.00" arrivalLane="E7_1" arrivalPos="188.65" arrivalSpeed="55.62" duration="12.00" routeLength="394.90" waitingTime="0.00" waitingCount="0" stopTime="0.00" timeLoss="4.78" rerouteNo="0" devices="tripinfo_E5_7.1 emissions_E5_7.1" vType="CarA" speedFactor="0.94" vaporized="">
        <emissions CO_abs="13929.576785" CO2_abs="635972.691366" HC_abs="79.412065" PMx_abs="16.903849" NOx_abs="292.583475" fuel_abs="273.372770" electricity_abs="0"/>
    </tripinfo>
    <tripinfo id="E1_2.0" depart="0.00" departLane="E1_0" departPos="5.10" departSpeed="0.00" departDelay="0.00" arrival="21.00" arrivalLane="E2_0" arrivalPos="188.65" arrivalSpeed="55.54" duration="21.00" routeLength="394.90" waitingTime="1.00" waitingCount="1" stopTime="0.00" timeLoss="13.95" rerouteNo="0" devices="tripinfo_E1_2.0 emissions_E1_2.0" vType="CarA" speedFactor="1.06" vaporized="">
        <emissions CO_abs="14375.886549" CO2_abs="675772.543993" HC_abs="82.385844" PMx_abs="17.692840" NOx_abs="310.474372" fuel_abs="290.480640" electricity_abs="0"/>
    </tripinfo>
    <tripinfo id="E5_7.0" depart="0.00" departLane="E5_0" departPos="5.10" departSpeed="0.00" departDelay="0.00" arrival="21.00" arrivalLane="E7_0" arrivalPos="188.65" arrivalSpeed="55.09" duration="21.00" routeLength="394.90" waitingTime="0.00" waitingCount="0" stopTime="0.00" timeLoss="13.93" rerouteNo="0" devices="tripinfo_E5_7.0 emissions_E5_7.0" vType="CarA" speedFactor="1.01" vaporized="">
        <emissions CO_abs="13818.538426" CO2_abs="650703.098604" HC_abs="79.224234" PMx_abs="17.051090" NOx_abs="299.010969" fuel_abs="279.704507" electricity_abs="0"/>
    </tripinfo>
    <tripinfo id="E1_2.2" depart="8.00" departLane="E1_0" departPos="5.10" departSpeed="0.00" departDelay="0.80" arrival="23.00" arrivalLane="E2_1" arrivalPos="188.65" arrivalSpeed="49.93" duration="15.00" routeLength="394.90" waitingTime="0.00" waitingCount="0" stopTime="0.00" timeLoss="6.77" rerouteNo="0" devices="tripinfo_E1_2.2 emissions_E1_2.2" vType="CarA" speedFactor="0.89" vaporized="">
        <emissions CO_abs="11599.101420" CO2_abs="544519.571609" HC_abs="66.479722" PMx_abs="14.272464" NOx_abs="248.774670" fuel_abs="234.061732" electricity_abs="0"/>
    </tripinfo>
    <tripinfo id="E1_2.3" depart="11.00" departLane="E1_0" departPos="5.10" departSpeed="0.00" departDelay="0.20" arrival="24.00" arrivalLane="E2_0" arrivalPos="188.65" arrivalSpeed="57.86" duration="13.00" routeLength="394.90" waitingTime="0.00" waitingCount="0" stopTime="0.00" timeLoss="5.96" rerouteNo="0" devices="tripinfo_E1_2.3 emissions_E1_2.3" vType="CarA" speedFactor="1.09" vaporized="">
        <emissions CO_abs="13132.495596" CO2_abs="603661.715934" HC_abs="74.969894" PMx_abs="15.986299" NOx_abs="276.809496" fuel_abs="259.483970" electricity_abs="0"/>
    </tripinfo>
    <tripinfo id="E1_2.4" depart="15.00" departLane="E1_0" departPos="5.10" departSpeed="0.00" departDelay="0.60" arrival="26.00" arrivalLane="E2_0" arrivalPos="188.65" arrivalSpeed="59.95" duration="11.00" routeLength="394.90" waitingTime="0.00" waitingCount="0" stopTime="0.00" timeLoss="3.80" rerouteNo="0" devices="tripinfo_E1_2.4 emissions_E1_2.4" vType="CarA" speedFactor="1.12" vaporized="">
        <emissions CO_abs="15825.352188" CO2_abs="695165.929774" HC_abs="89.610628" PMx_abs="18.761593" NOx_abs="318.878616" fuel_abs="298.817342" electricity_abs="0"/>
    </tripinfo>
    <tripinfo id="E5_7.2" depart="15.00" departLane="E5_0" departPos="5.10" departSpeed="0.00" departDelay="0.60" arrival="26.00" arrivalLane="E7_0" arrivalPos="188.65" arrivalSpeed="56.53" duration="11.00" routeLength="394.90" waitingTime="0.00" waitingCount="0" stopTime="0.00" timeLoss="3.74" rerouteNo="0" devices="tripinfo_E5_7.2 emissions_E5_7.2" vType="CarA" speedFactor="0.99" vaporized="">
        <emissions CO_abs="14407.600110" CO2_abs="619570.295084" HC_abs="81.282640" PMx_abs="16.834884" NOx_abs="283.375079" fuel_abs="266.322778" electricity_abs="0"/>
    </tripinfo>
    <tripinfo id="E1_2.5" depart="18.00" departLane="E1_0" departPos="5.10" departSpeed="0.00" departDelay="0.00" arrival="28.00" arrivalLane="E2_0" arrivalPos="188.65" arrivalSpeed="56.02" duration="10.00" routeLength="394.90" waitingTime="0.00" waitingCount="0" stopTime="0.00" timeLoss="2.93" rerouteNo="0" devices="tripinfo_E1_2.5 emissions_E1_2.5" vType="CarA" speedFactor="0.94" vaporized="">
        <emissions CO_abs="12371.734245" CO2_abs="552018.615986" HC_abs="70.244947" PMx_abs="14.802564" NOx_abs="253.477403" fuel_abs="237.285302" electricity_abs="0"/>
    </tripinfo>
    <tripinfo id="E1_2.6" depart="22.00" departLane="E1_0" departPos="5.10" departSpeed="0.00" departDelay="0.40" arrival="33.00" arrivalLane="E2_0" arrivalPos="188.65" arrivalSpeed="58.23" duration="11.00" routeLength="394.90" waitingTime="0.00" waitingCount="0" stopTime="0.00" timeLoss="3.93" rerouteNo="0" devices="tripinfo_E1_2.6 emissions_E1_2.6" vType="CarA" speedFactor="1.16" vaporized="">
        <emissions CO_abs="14143.920082" CO2_abs="611196.418543" HC_abs="79.860776" PMx_abs="16.570429" NOx_abs="279.590503" fuel_abs="262.723229" electricity_abs="0"/>
    </tripinfo>
    <tripinfo id="E5_7.3" depart="22.00" departLane="E5_0" departPos="5.10" departSpeed="0.00" departDelay="0.40" arrival="33.00" arrivalLane="E7_0" arrivalPos="188.65" arrivalSpeed="56.14" duration="11.00" routeLength="394.90" waitingTime="0.00" waitingCount="0" stopTime="0.00" timeLoss="3.83" rerouteNo="0" devices="tripinfo_E5_7.3 emissions_E5_7.3" vType="CarA" speedFactor="1.02" vaporized="">
        <emissions CO_abs="13760.222978" CO2_abs="613459.143803" HC_abs="78.110958" PMx_abs="16.442128" NOx_abs="281.824500" fuel_abs="263.695527" electricity_abs="0"/>
    </tripinfo>
    <tripinfo id="E1_2.7" depart="26.00" departLane="E1_0" departPos="5.10" departSpeed="0.00" departDelay="0.80" arrival="37.00" arrivalLane="E2_0" arrivalPos="188.65" arrivalSpeed="58.09" duration="11.00" routeLength="394.90" waitingTime="0.00" waitingCount="0" stopTime="0.00" timeLoss="3.41" rerouteNo="0" devices="tripinfo_E1_2.7 emissions_E1_2.7" vType="CarA" speedFactor="0.98" vaporized="">
        <emissions CO_abs="15102.398143" CO2_abs="646310.811497" HC_abs="85.132009" PMx_abs="17.605965" NOx_abs="295.720090" fuel_abs="277.817223" electricity_abs="0"/>
    </tripinfo>
    <tripinfo id="E1_2.8" depart="29.00" departLane="E1_0" departPos="5.10" departSpeed="0.00" departDelay="0.20" arrival="40.00" arrivalLane="E2_0" arrivalPos="188.65" arrivalSpeed="47.45" duration="11.00" routeLength="394.90" waitingTime="0.00" waitingCount="0" stopTime="0.00" timeLoss="3.44" rerouteNo="0" devices="tripinfo_E1_2.8 emissions_E1_2.8" vType="CarA" speedFactor="0.87" vaporized="">
        <emissions CO_abs="9588.754125" CO2_abs="442232.961757" HC_abs="54.776177" PMx_abs="11.686469" NOx_abs="202.393161" fuel_abs="190.093860" electricity_abs="0"/>
    </tripinfo>
    <tripinfo id="E5_7.4" depart="29.00" departLane="E5_0" departPos="5.10" departSpeed="0.00" departDelay="0.20" arrival="40.00" arrivalLane="E7_0" arrivalPos="188.65" arrivalSpeed="53.71" duration="11.00" routeLength="394.90" waitingTime="0.00" waitingCount="0" stopTime="0.00" timeLoss="3.72" rerouteNo="0" devices="tripinfo_E5_7.4 emissions_E5_7.4" vType="CarA" speedFactor="0.92" vaporized="">
        <emissions CO_abs="12940.786027" CO2_abs="569362.777208" HC_abs="73.302371" PMx_abs="15.321987" NOx_abs="260.189002" fuel_abs="244.740931" electricity_abs="0"/>
    </tripinfo>
    <tripinfo id="E1_2.9" depart="33.00" departLane="E1_0" departPos="5.10" departSpeed="0.00" departDelay="0.60" arrival="44.00" arrivalLane="E2_0" arrivalPos="188.65" arrivalSpeed="58.24" duration="11.00" routeLength="394.90" waitingTime="0.00" waitingCount="0" stopTime="0.00" timeLoss="3.63" rerouteNo="0" devices="tripinfo_E1_2.9 emissions_E1_2.9" vType="CarA" speedFactor="1.13" vaporized="">
        <emissions CO_abs="14141.942620" CO2_abs="617628.599876" HC_abs="79.985653" PMx_abs="16.683111" NOx_abs="283.556660" fuel_abs="265.487923" electricity_abs="0"/>
    </tripinfo>
    <tripinfo id="E1_2.10" depart="36.00" departLane="E1_0" departPos="5.10" departSpeed="0.00" departDelay="0.00" arrival="46.00" arrivalLane="E2_0" arrivalPos="188.65" arrivalSpeed="55.55" duration="10.00" routeLength="394.90" waitingTime="0.00" waitingCount="0" stopTime="0.00" timeLoss="3.33" rerouteNo="0" devices="tripinfo_E1_2.10 emissions_E1_2.10" vType="CarA" speedFactor="1.15" vaporized="">
        <emissions CO_abs="13499.463800" CO2_abs="601335.386016" HC_abs="76.614401" PMx_abs="16.133232" NOx_abs="276.790851" fuel_abs="258.484067" electricity_abs="0"/>
    </tripinfo>
    <tripinfo id="E5_7.5" depart="36.00" departLane="E5_0" departPos="5.10" departSpeed="0.00" departDelay="0.00" arrival="47.00" arrivalLane="E7_0" arrivalPos="188.65" arrivalSpeed="57.98" duration="11.00" routeLength="394.90" waitingTime="0.00" waitingCount="0" stopTime="0.00" timeLoss="4.12" rerouteNo="0" devices="tripinfo_E5_7.5 emissions_E5_7.5" vType="CarA" speedFactor="1.01" vaporized="">
        <emissions CO_abs="14416.810529" CO2_abs="611934.280548" HC_abs="81.162158" PMx_abs="16.701264" NOx_abs="278.886177" fuel_abs="263.040632" electricity_abs="0"/>
    </tripinfo>
    <tripinfo id="E1_2.11" depart="40.00" departLane="E1_0" departPos="5.10" departSpeed="0.00" departDelay="0.40" arrival="50.00" arrivalLane="E2_0" arrivalPos="188.65" arrivalSpeed="58.31" duration="10.00" routeLength="394.90" waitingTime="0.00" waitingCount="0" stopTime="0.00" timeLoss="3.40" rerouteNo="0" devices="tripinfo_E1_2.11 emissions_E1_2.11" vType="CarA" speedFactor="1.02" vaporized="">
        <emissions CO_abs="14138.577290" CO2_abs="615236.370125" HC_abs="79.920985" PMx_abs="16.649931" NOx_abs="282.228025" fuel_abs="264.459664" electricity_abs="0"/>
    </tripinfo>
    <tripinfo id="E1_2.12" depart="44.00" departLane="E1_0" departPos="5.10" departSpeed="0.00" departDelay="0.80" arrival="55.00" arrivalLane="E2_0" arrivalPos="188.65" arrivalSpeed="57.70" duration="11.00" routeLength="394.90" waitingTime="0.00" waitingCount="0" stopTime="0.00" timeLoss="3.92" rerouteNo="0" devices="tripinfo_E1_2.12 emissions_E1_2.12" vType="CarA" speedFactor="1.18" vaporized="">
        <emissions CO_abs="13947.613693" CO2_abs="621194.508431" HC_abs="79.155222" PMx_abs="16.648895" NOx_abs="285.596311" fuel_abs="267.020564" electricity_abs="0"/>
    </tripinfo>
    <tripinfo id="E5_7.6" depart="44.00" departLane="E5_0" departPos="5.10" departSpeed="0.00" departDelay="0.80" arrival="55.00" arrivalLane="E7_0" arrivalPos="188.65" arrivalSpeed="59.36" duration="11.00" routeLength="394.90" waitingTime="0.00" waitingCount="0" stopTime="0.00" timeLoss="3.83" rerouteNo="0" devices="tripinfo_E5_7.6 emissions_E5_7.6" vType="CarA" speedFactor="1.10" vaporized="">
        <emissions CO_abs="15130.093960" CO2_abs="647970.428795" HC_abs="85.287085" PMx_abs="17.626154" NOx_abs="296.884796" fuel_abs="278.530580" electricity_abs="0"/>
    </tripinfo>
    <tripinfo id="E1_2.13" depart="47.00" departLane="E1_0" departPos="5.10" departSpeed="0.00" departDelay="0.20" arrival="58.00" arrivalLane="E2_0" arrivalPos="188.65" arrivalSpeed="53.71" duration="11.00" routeLength="394.90" waitingTime="0.00" waitingCount="0" stopTime="0.00" timeLoss="4.04" rerouteNo="0" devices="tripinfo_E1_2.13 emissions_E1_2.13" vType="CarA" speedFactor="0.96" vaporized="">
        <emissions CO_abs="12297.942167" CO2_abs="535196.187518" HC_abs="69.528779" PMx_abs="14.450295" NOx_abs="244.143594" fuel_abs="230.054521" electricity_abs="0"/>
    </tripinfo>
    <tripinfo id="E1_2.14" depart="51.00" departLane="E1_0" departPos="5.10" departSpeed="0.00" departDelay="0.60" arrival="61.00" arrivalLane="E2_0" arrivalPos="188.65" arrivalSpeed="59.21" duration="10.00" routeLength="394.90" waitingTime="0.00" waitingCount="0" stopTime="0.00" timeLoss="3.32" rerouteNo="0" devices="tripinfo_E1_2.14 emissions_E1_2.14" vType="CarA" speedFactor="1.04" vaporized="">
        <emissions CO_abs="14241.087383" CO2_abs="620098.907246" HC_abs="80.511695" PMx_abs="16.782842" NOx_abs="284.429736" fuel_abs="266.549822" electricity_abs="0"/>
    </tripinfo>
    <tripinfo id="E5_7.7" depart="51.00" departLane="E5_0" departPos="5.10" departSpeed="0.00" departDelay="0.60" arrival="62.00" arrivalLane="E7_0" arrivalPos="188.65" arrivalSpeed="56.17" duration="11.00" routeLength="394.90" waitingTime="0.00" waitingCount="0" stopTime="0.00" timeLoss="3.91" rerouteNo="0" devices="tripinfo_E5_7.7 emissions_E5_7.7" vType="CarA" speedFactor="1.04" vaporized="">
        <emissions CO_abs="14501.379880" CO2_abs="618456.107576" HC_abs="81.686745" PMx_abs="16.843565" NOx_abs="283.023289" fuel_abs="265.843896" electricity_abs="0"/>
    </tripinfo>
    <tripinfo id="E1_2.15" depart="54.00" departLane="E1_0" departPos="5.10" departSpeed="0.00" departDelay="0.00" arrival="65.00" arrivalLane="E2_0" arrivalPos="188.65" arrivalSpeed="56.74" duration="11.00" routeLength="394.90" waitingTime="0.00" waitingCount="0" stopTime="0.00" timeLoss="4.09" rerouteNo="0" devices="tripinfo_E1_2.15 emissions_E1_2.15" vType="CarA" speedFactor="1.00" vaporized="">
        <emissions CO_abs="13992.731737" CO2_abs="602521.870595" HC_abs="78.951176" PMx_abs="16.341172" NOx_abs="275.754655" fuel_abs="258.994491" electricity_abs="0"/>
    </tripinfo>
    <tripinfo id="E5_7.8" depart="58.00" departLane="E5_0" departPos="5.10" departSpeed="0.00" departDelay="0.40" arrival="69.00" arrivalLane="E7_0" arrivalPos="188.65" arrivalSpeed="48.11" duration="11.00" routeLength="394.90" waitingTime="0.00" waitingCount="0" stopTime="0.00" timeLoss="3.14" rerouteNo="0" devices="tripinfo_E5_7.8 emissions_E5_7.8" vType="CarA" speedFactor="0.85" vaporized="">
        <emissions CO_abs="9929.720497" CO2_abs="453730.078354" HC_abs="56.630010" PMx_abs="12.039954" NOx_abs="207.609751" fuel_abs="195.035937" electricity_abs="0"/>
    </tripinfo>
    <tripinfo id="E1_2.16" depart="58.00" departLane="E1_0" departPos="5.10" departSpeed="0.00" departDelay="0.40" arrival="70.00" arrivalLane="E2_0" arrivalPos="188.65" arrivalSpeed="48.86" duration="12.00" routeLength="394.90" waitingTime="0.00" waitingCount="0" stopTime="0.00" timeLoss="3.80" rerouteNo="0" devices="tripinfo_E1_2.16 emissions_E1_2.16" vType="CarA" speedFactor="0.85" vaporized="">
        <emissions CO_abs="11212.460346" CO2_abs="508614.747391" HC_abs="63.865681" PMx_abs="13.516354" NOx_abs="232.021279" fuel_abs="218.628245" electricity_abs="0"/>
    </tripinfo>
    <tripinfo id="E1_2.17" depart="62.00" departLane="E1_0" departPos="5.10" departSpeed="0.00" departDelay="0.80" arrival="72.00" arrivalLane="E2_0" arrivalPos="188.65" arrivalSpeed="56.44" duration="10.00" routeLength="394.90" waitingTime="0.00" waitingCount="0" stopTime="0.00" timeLoss="3.34" rerouteNo="0" devices="tripinfo_E1_2.17 emissions_E1_2.17" vType="CarA" speedFactor="1.10" vaporized="">
        <emissions CO_abs="13521.785782" CO2_abs="590447.777541" HC_abs="76.491675" PMx_abs="15.967933" NOx_abs="270.379298" fuel_abs="253.804293" electricity_abs="0"/>
    </tripinfo>
    <tripinfo id="E1_2.18" depart="65.00" departLane="E1_0" departPos="5.10" departSpeed="0.00" departDelay="0.20" arrival="76.00" arrivalLane="E2_0" arrivalPos="188.65" arrivalSpeed="56.85" duration="11.00" routeLength="394.90" waitingTime="0.00" waitingCount="0" stopTime="0.00" timeLoss="3.81" rerouteNo="0" devices="tripinfo_E1_2.18 emissions_E1_2.18" vType="CarA" speedFactor="1.00" vaporized="">
        <emissions CO_abs="13544.811924" CO2_abs="602513.648521" HC_abs="76.859097" PMx_abs="16.160776" NOx_abs="276.652184" fuel_abs="258.990634" electricity_abs="0"/>
    </tripinfo>
    <tripinfo id="E5_7.9" depart="65.00" departLane="E5_0" departPos="5.10" departSpeed="0.00" departDelay="0.20" arrival="76.00" arrivalLane="E7_0" arrivalPos="188.65" arrivalSpeed="51.73" duration="11.00" routeLength="394.90" waitingTime="0.00" waitingCount="0" stopTime="0.00" timeLoss="3.32" rerouteNo="0" devices="tripinfo_E5_7.9 emissions_E5_7.9" vType="CarA" speedFactor="0.90" vaporized="">
        <emissions CO_abs="11455.866659" CO2_abs="506822.174987" HC_abs="64.955951" PMx_abs="13.610665" NOx_abs="231.569036" fuel_abs="217.857790" electricity_abs="0"/>
    </tripinfo>
    <tripinfo id="E1_2.19" depart="69.00" departLane="E1_0" departPos="5.10" departSpeed="0.00" departDelay="0.60" arrival="80.00" arrivalLane="E2_0" arrivalPos="188.65" arrivalSpeed="54.79" duration="11.00" routeLength="394.90" waitingTime="0.00" waitingCount="0" stopTime="0.00" timeLoss="3.63" rerouteNo="0" devices="tripinfo_E1_2.19 emissions_E1_2.19" vType="CarA" speedFactor="0.97" vaporized="">
        <emissions CO_abs="14205.929267" CO2_abs="606667.971139" HC_abs="80.047416" PMx_abs="16.520806" NOx_abs="277.343575" fuel_abs="260.776771" electricity_abs="0"/>
    </tripinfo>
    <tripinfo id="E1_2.20" depart="72.00" departLane="E1_0" departPos="5.10" departSpeed="0.00" departDelay="0.00" arrival="83.00" arrivalLane="E2_0" arrivalPos="188.65" arrivalSpeed="56.98" duration="11.00" routeLength="394.90" waitingTime="0.00" waitingCount="0" stopTime="0.00" timeLoss="3.95" rerouteNo="0" devices="tripinfo_E1_2.20 emissions_E1_2.20" vType="CarA" speedFactor="1.02" vaporized="">
        <emissions CO_abs="14416.818601" CO2_abs="634813.583754" HC_abs="81.645301" PMx_abs="17.078328" NOx_abs="292.066870" fuel_abs="272.874789" electricity_abs="0"/>
    </tripinfo>
    <tripinfo id="E5_7.10" depart="72.00" departLane="E5_0" departPos="5.10" departSpeed="0.00" departDelay="0.00" arrival="83.00" arrivalLane="E7_0" arrivalPos="188.65" arrivalSpeed="55.31" duration="11.00" routeLength="394.90" waitingTime="0.00" waitingCount="0" stopTime="0.00" timeLoss="4.01" rerouteNo="0" devices="tripinfo_E5_7.10 emissions_E5_7.10" vType="CarA" speedFactor="0.99" vaporized="">
        <emissions CO_abs="12750.578530" CO2_abs="553786.336316" HC_abs="72.066513" PMx_abs="14.978727" NOx_abs="252.639592" fuel_abs="238.045509" electricity_abs="0"/>
    </tripinfo>
    <tripinfo id="E1_2.21" depart="76.00" departLane="E1_0" departPos="5.10" departSpeed="0.00" departDelay="0.40" arrival="87.00" arrivalLane="E2_0" arrivalPos="188.65" arrivalSpeed="52.31" duration="11.00" routeLength="394.90" waitingTime="0.00" waitingCount="0" stopTime="0.00" timeLoss="3.47" rerouteNo="0" devices="tripinfo_E1_2.21 emissions_E1_2.21" vType="CarA" speedFactor="0.94" vaporized="">
        <emissions CO_abs="11705.998190" CO2_abs="529494.831951" HC_abs="66.619595" PMx_abs="14.104033" NOx_abs="243.386513" fuel_abs="227.603366" electricity_abs="0"/>
    </tripinfo>
    <tripinfo id="E1_2.22" depart="80.00" departLane="E1_0" departPos="5.10" departSpeed="0.00" departDelay="0.80" arrival="91.00" arrivalLane="E2_0" arrivalPos="188.65" arrivalSpeed="53.21" duration="11.00" routeLength="394.90" waitingTime="0.00" waitingCount="0" stopTime="0.00" timeLoss="3.00" rerouteNo="0" devices="tripinfo_E1_2.22 emissions_E1_2.22" vType="CarA" speedFactor="0.91" vaporized="">
        <emissions CO_abs="13301.985757" CO2_abs="582423.920817" HC_abs="75.281489" PMx_abs="15.727405" NOx_abs="266.760237" fuel_abs="250.355218" electricity_abs="0"/>
    </tripinfo>
    <tripinfo id="E8_9.2" depart="12.00" departLane="E8_0" departPos="5.10" departSpeed="0.00" departDelay="0.92" arrival="95.00" arrivalLane="E9_1" arrivalPos="188.65" arrivalSpeed="53.92" duration="83.00" routeLength="394.90" waitingTime="62.00" waitingCount="1" stopTime="0.00" timeLoss="76.26" rerouteNo="0" devices="tripinfo_E8_9.2 emissions_E8_9.2" vType="CarA" speedFactor="1.03" vaporized="">
        <emissions CO_abs="22130.344749" CO2_abs="768452.492242" HC_abs="119.763934" PMx_abs="19.870228" NOx_abs="353.304382" fuel_abs="330.324225" electricity_abs="0"/>
    </tripinfo>
    <tripinfo id="E8_9.4" depart="23.00" departLane="E8_0" departPos="5.10" departSpeed="0.00" departDelay="0.85" arrival="95.00" arrivalLane="E9_2" arrivalPos="188.65" arrivalSpeed="50.60" duration="72.00" routeLength="394.90" waitingTime="51.00" waitingCount="1" stopTime="0.00" timeLoss="65.35" rerouteNo="0" devices="tripinfo_E8_9.4 emissions_E8_9.4" vType="CarA" speedFactor="1.01" vaporized="">
        <emissions CO_abs="19110.997646" CO2_abs="686005.317914" HC_abs="103.993380" PMx_abs="17.673988" NOx_abs="314.417931" fuel_abs="294.883385" electricity_abs="0"/>
    </tripinfo>
    <tripinfo id="E3_6.6" depart="26.00" departLane="E3_0" departPos="5.10" departSpeed="0.00" departDelay="0.59" arrival="95.00" arrivalLane="E6_2" arrivalPos="188.65" arrivalSpeed="52.84" duration="69.00" routeLength="394.90" waitingTime="49.00" waitingCount="1" stopTime="0.00" timeLoss="61.53" rerouteNo="0" devices="tripinfo_E3_6.6 emissions_E3_6.6" vType="CarA" speedFactor="0.89" vaporized="">
        <emissions CO_abs="20503.736673" CO2_abs="744974.466211" HC_abs="111.803359" PMx_abs="19.262637" NOx_abs="342.672501" fuel_abs="320.231216" electricity_abs="0"/>
    </tripinfo>
    <tripinfo id="E8_9.1" depart="6.00" departLane="E8_0" departPos="5.10" departSpeed="0.00" departDelay="0.46" arrival="96.00" arrivalLane="E9_0" arrivalPos="188.65" arrivalSpeed="56.43" duration="90.00" routeLength="394.90" waitingTime="68.00" waitingCount="1" stopTime="0.00" timeLoss="82.71" rerouteNo="0" devices="tripinfo_E8_9.1 emissions_E8_9.1" vType="CarA" speedFactor="1.05" vaporized="">
        <emissions CO_abs="25235.062563" CO2_abs="855987.315686" HC_abs="136.081402" PMx_abs="22.249913" NOx_abs="393.505186" fuel_abs="367.952035" electricity_abs="0"/>
    </tripinfo>
    <tripinfo id="E3_6.2" depart="9.00" departLane="E3_0" departPos="5.10" departSpeed="0.00" departDelay="0.53" arrival="96.00" arrivalLane="E6_0" arrivalPos="188.65" arrivalSpeed="51.27" duration="87.00" routeLength="394.90" waitingTime="67.00" waitingCount="1" stopTime="0.00" timeLoss="78.51" rerouteNo="0" devices="tripinfo_E3_6.2 emissions_E3_6.2" vType="CarA" speedFactor="0.86" vaporized="">
        <emissions CO_abs="22704.200564" CO2_abs="766023.474103" HC_abs="122.321217" PMx_abs="19.803158" NOx_abs="350.519412" fuel_abs="329.280825" electricity_abs="0"/>
    </tripinfo>
    <tripinfo id="E3_6.3" depart="13.00" departLane="E3_0" departPos="5.10" departSpeed="0.00" departDelay="0.29" arrival="96.00" arrivalLane="E6_1" arrivalPos="188.65" arrivalSpeed="48.89" duration="83.00" routeLength="394.90" waitingTime="62.00" waitingCount="1" stopTime="0.00" timeLoss="76.17" rerouteNo="0" devices="tripinfo_E3_6.3 emissions_E3_6.3" vType="CarA" speedFactor="1.05" vaporized="">
        <emissions CO_abs="21078.490551" CO2_abs="711929.243099" HC_abs="113.536684" PMx_abs="18.269105" NOx_abs="326.152521" fuel_abs="306.028078" electricity_abs="0"/>
    </tripinfo>
    <tripinfo id="E8_9.5" depart="28.00" departLane="E8_0" departPos="5.10" departSpeed="0.00" departDelay="0.31" arrival="97.00" arrivalLane="E9_1" arrivalPos="188.65" arrivalSpeed="49.03" duration="69.00" routeLength="394.90" waitingTime="47.00" waitingCount="1" stopTime="0.00" timeLoss="60.43" rerouteNo="0" devices="tripinfo_E8_9.5 emissions_E8_9.5" vType="CarA" speedFactor="0.83" vaporized="">
        <emissions CO_abs="18015.802234" CO2_abs="643891.555023" HC_abs="97.979001" PMx_abs="16.623401" NOx_abs="294.662102" fuel_abs="276.780623" electricity_abs="0"/>
    </tripinfo>
    <tripinfo id="E3_6.8" depart="34.00" departLane="E3_0" departPos="5.10" departSpeed="0.00" departDelay="0.12" arrival="97.00" arrivalLane="E6_2" arrivalPos="188.65" arrivalSpeed="59.61" duration="63.00" routeLength="394.90" waitingTime="40.00" waitingCount="1" stopTime="0.00" timeLoss="55.65" rerouteNo="0" devices="tripinfo_E3_6.8 emissions_E3_6.8" vType="CarA" speedFactor="1.18" vaporized="">
        <emissions CO_abs="20936.085035" CO2_abs="808673.832988" HC_abs="115.433355" PMx_abs="21.009422" NOx_abs="370.964957" fuel_abs="347.611615" electricity_abs="0"/>
    </tripinfo>
    <tripinfo id="E8_9.7" depart="39.00" departLane="E8_0" departPos="5.10" departSpeed="0.00" departDelay="0.23" arrival="97.00" arrivalLane="E9_2" arrivalPos="188.65" arrivalSpeed="57.28" duration="58.00" routeLength="394.90" waitingTime="35.00" waitingCount="1" stopTime="0.00" timeLoss="50.78" rerouteNo="0" devices="tripinfo_E8_9.7 emissions_E8_9.7" vType="CarA" speedFactor="0.99" vaporized="">
        <emissions CO_abs="19133.716259" CO2_abs="738883.548563" HC_abs="105.504077" PMx_abs="19.262111" NOx_abs="339.376014" fuel_abs="317.611891" electricity_abs="0"/>
    </tripinfo>
    <tripinfo id="E8_9.3" depart="17.00" departLane="E8_0" departPos="5.10" departSpeed="0.00" departDelay="0.39" arrival="98.00" arrivalLane="E9_0" arrivalPos="188.65" arrivalSpeed="52.43" duration="81.00" routeLength="394.90" waitingTime="57.00" waitingCount="1" stopTime="0.00" timeLoss="73.12" rerouteNo="0" devices="tripinfo_E8_9.3 emissions_E8_9.3" vType="CarA" speedFactor="0.93" vaporized="">
        <emissions CO_abs="20338.194473" CO2_abs="708254.670112" HC_abs="110.116799" PMx_abs="18.200541" NOx_abs="323.484844" fuel_abs="304.448076" electricity_abs="0"/>
    </tripinfo>
    <tripinfo id="E3_6.4" depart="17.00" departLane="E3_0" departPos="5.10" departSpeed="0.00" departDelay="0.06" arrival="98.00" arrivalLane="E6_0" arrivalPos="188.65" arrivalSpeed="51.03" duration="81.00" routeLength="394.90" waitingTime="58.00" waitingCount="1" stopTime="0.00" timeLoss="73.15" rerouteNo="0" devices="tripinfo_E3_6.4 emissions_E3_6.4" vType="CarA" speedFactor="0.88" vaporized="">
        <emissions CO_abs="21724.472234" CO2_abs="748722.108362" HC_abs="117.415153" PMx_abs="19.313219" NOx_abs="343.862620" fuel_abs="321.843211" electricity_abs="0"/>
    </tripinfo>
    <tripinfo id="E3_6.5" depart="22.00" departLane="E3_0" departPos="5.10" departSpeed="0.00" departDelay="0.82" arrival="98.00" arrivalLane="E6_1" arrivalPos="188.65" arrivalSpeed="53.43" duration="76.00" routeLength="394.90" waitingTime="51.00" waitingCount="1" stopTime="0.00" timeLoss="68.04" rerouteNo="0" devices="tripinfo_E3_6.5 emissions_E3_6.5" vType="CarA" speedFactor="0.94" vaporized="">
        <emissions CO_abs="20927.787872" CO2_abs="753530.929304" HC_abs="113.975928" PMx_abs="19.550913" NOx_abs="345.539008" fuel_abs="323.909472" electricity_abs="0"/>
    </tripinfo>